<?xml version="1.0" encoding="UTF-8"?>
<VTKFile type="ImageData"><!--This file is generated by NIOBASIC VTI_RectilinearGrid_write--><ImageData WholeExtent="0 10 0 0 0 10" Origin="0 0 0" Spacing="1 1 1"><Piece Extent="0 10 0 0 0 10"><PointData Scalars="scalar_data_0"><DataArray type="UInt16" Name="scalar_data_0" format="ascii">1 1 1 1 1 1 1 1 1 1 1 1 1 1 1 1 1 1 1 1 1 1 1 1 1 1 1 1 1 1 1 1 1 0 0 0 0 0 0 0 0 0 0 0 0 0 0 0 0 0 0 0 0 0 0 0 0 0 0 0 0 0 0 0 0 0 1 1 1 1 1 1 1 1 1 1 1 1 1 1 1 1 1 1 1 1 1 1 1 1 1 1 1 1 1 1 1 1 1 1 1 1 1 1 1 1 1 1 1 1 1 1 1 1 1 1 1 1 1 1 1 </DataArray></PointData></Piece></ImageData></VTKFile>
