<?xml version="1.0" encoding="UTF-8"?>
<VTKFile type="ImageData"><!--This file is generated by NIOBASIC VTI_RectilinearGrid_write--><ImageData WholeExtent="0 10 0 0 0 10" Origin="0 0 0" Spacing="1 1 1"><Piece Extent="0 10 0 0 0 10"><PointData Scalars="scalar_data_0"><DataArray type="Float64" Name="scalar_data_0" format="ascii">+0.000000e+00 +1.458964e-10 +4.123684e-11 +5.420180e-11 -8.620756e-13 +3.616025e-11 -3.616025e-11 +8.620756e-13 -5.420180e-11 -4.123684e-11 -1.458964e-10 +0.000000e+00 +1.373154e-10 +3.185970e-11 +1.433288e-11 +2.242507e-11 +8.409197e-12 -8.409197e-12 -2.242507e-11 -1.433288e-11 -3.185970e-11 -1.373154e-10 +0.000000e+00 +6.821247e-11 +4.152735e-11 -2.306220e-12 +1.682523e-11 +1.263901e-11 -1.263901e-11 -1.682523e-11 +2.306220e-12 -4.152735e-11 -6.821247e-11 +0.000000e+00 -2.480426e-12 +4.407123e-12 -5.534061e-12 +2.677783e-11 -4.571093e-12 +4.571093e-12 -2.677783e-11 +5.534061e-12 -4.407123e-12 +2.480426e-12 +0.000000e+00 -6.636285e-11 +9.646920e-12 +1.578948e-11 +1.075232e-10 +1.165294e-10 -1.165294e-10 -1.075232e-10 -1.578948e-11 -9.646920e-12 +6.636285e-11 +0.000000e+00 -7.747666e-11 -2.254512e-11 -1.162857e-11 +5.788701e-11 -7.643658e-13 +7.643658e-13 -5.788701e-11 +1.162857e-11 +2.254512e-11 +7.747666e-11 +0.000000e+00 -6.689987e-11 -5.810128e-11 +7.482359e-12 -9.132136e-11 -8.421671e-11 +8.421671e-11 +9.132136e-11 -7.482359e-12 +5.810128e-11 +6.689987e-11 +0.000000e+00 -1.182806e-10 -3.781778e-11 -2.163201e-11 -1.913136e-11 -6.121930e-12 +6.121930e-12 +1.913136e-11 +2.163201e-11 +3.781778e-11 +1.182806e-10 +0.000000e+00 -1.030589e-10 -2.537940e-11 -3.859594e-11 -5.716323e-11 -4.667574e-11 +4.667574e-11 +5.716323e-11 +3.859594e-11 +2.537940e-11 +1.030589e-10 +0.000000e+00 -3.116853e-11 +9.684457e-12 -2.997957e-11 -3.329979e-11 -4.460677e-11 +4.460677e-11 +3.329979e-11 +2.997957e-11 -9.684457e-12 +3.116853e-11 +0.000000e+00 +1.143037e-10 +5.481207e-12 +1.786992e-11 -2.966030e-11 +1.321886e-11 -1.321886e-11 +2.966030e-11 -1.786992e-11 -5.481207e-12 -1.143037e-10 </DataArray><DataArray type="Float64" Name="scalar_data_1" format="ascii">+0.000000e+00 +0.000000e+00 +0.000000e+00 +0.000000e+00 +0.000000e+00 +0.000000e+00 +0.000000e+00 +0.000000e+00 +0.000000e+00 +0.000000e+00 +0.000000e+00 +0.000000e+00 +0.000000e+00 +0.000000e+00 +0.000000e+00 +0.000000e+00 +0.000000e+00 +0.000000e+00 +0.000000e+00 +0.000000e+00 +0.000000e+00 +0.000000e+00 +0.000000e+00 +0.000000e+00 +0.000000e+00 +0.000000e+00 +0.000000e+00 +0.000000e+00 +0.000000e+00 +0.000000e+00 +0.000000e+00 +0.000000e+00 +0.000000e+00 +0.000000e+00 +0.000000e+00 +0.000000e+00 +0.000000e+00 +0.000000e+00 +0.000000e+00 +0.000000e+00 +0.000000e+00 +0.000000e+00 +0.000000e+00 +0.000000e+00 +0.000000e+00 +0.000000e+00 +0.000000e+00 +0.000000e+00 +0.000000e+00 +0.000000e+00 +0.000000e+00 +0.000000e+00 +0.000000e+00 +0.000000e+00 +0.000000e+00 +0.000000e+00 +0.000000e+00 +0.000000e+00 +0.000000e+00 +0.000000e+00 +0.000000e+00 +0.000000e+00 +0.000000e+00 +0.000000e+00 +0.000000e+00 +0.000000e+00 +0.000000e+00 +0.000000e+00 +0.000000e+00 +0.000000e+00 +0.000000e+00 +0.000000e+00 +0.000000e+00 +0.000000e+00 +0.000000e+00 +0.000000e+00 +0.000000e+00 +0.000000e+00 +0.000000e+00 +0.000000e+00 +0.000000e+00 +0.000000e+00 +0.000000e+00 +0.000000e+00 +0.000000e+00 +0.000000e+00 +0.000000e+00 +0.000000e+00 +0.000000e+00 +0.000000e+00 +0.000000e+00 +0.000000e+00 +0.000000e+00 +0.000000e+00 +0.000000e+00 +0.000000e+00 +0.000000e+00 +0.000000e+00 +0.000000e+00 +0.000000e+00 +0.000000e+00 +0.000000e+00 +0.000000e+00 +0.000000e+00 +0.000000e+00 +0.000000e+00 +0.000000e+00 +0.000000e+00 +0.000000e+00 +0.000000e+00 +0.000000e+00 +0.000000e+00 +0.000000e+00 +0.000000e+00 +0.000000e+00 +0.000000e+00 +0.000000e+00 +0.000000e+00 +0.000000e+00 +0.000000e+00 +0.000000e+00 </DataArray><DataArray type="Float64" Name="scalar_data_2" format="ascii">+1.173778e+05 +1.173778e+05 +1.173778e+05 +1.173778e+05 +1.173778e+05 +1.173778e+05 +1.173778e+05 +1.173778e+05 +1.173778e+05 +1.173778e+05 +1.173778e+05 +1.173777e+05 +1.173777e+05 +1.173777e+05 +1.173777e+05 +1.173777e+05 +1.173777e+05 +1.173777e+05 +1.173777e+05 +1.173777e+05 +1.173777e+05 +1.173777e+05 +1.173775e+05 +1.173775e+05 +1.173775e+05 +1.173775e+05 +1.173775e+05 +1.173775e+05 +1.173775e+05 +1.173775e+05 +1.173775e+05 +1.173775e+05 +1.173775e+05 +3.353648e+06 +3.353648e+06 +3.353648e+06 +3.353648e+06 +3.353648e+06 +3.353648e+06 +3.353648e+06 +3.353648e+06 +3.353648e+06 +3.353648e+06 +3.353648e+06 +3.353659e+06 +3.353659e+06 +3.353659e+06 +3.353659e+06 +3.353659e+06 +3.353659e+06 +3.353659e+06 +3.353659e+06 +3.353659e+06 +3.353659e+06 +3.353659e+06 +3.353669e+06 +3.353669e+06 +3.353669e+06 +3.353669e+06 +3.353669e+06 +3.353669e+06 +3.353669e+06 +3.353669e+06 +3.353669e+06 +3.353669e+06 +3.353669e+06 +1.173785e+05 +1.173785e+05 +1.173785e+05 +1.173785e+05 +1.173785e+05 +1.173785e+05 +1.173785e+05 +1.173785e+05 +1.173785e+05 +1.173785e+05 +1.173785e+05 +1.173784e+05 +1.173784e+05 +1.173784e+05 +1.173784e+05 +1.173784e+05 +1.173784e+05 +1.173784e+05 +1.173784e+05 +1.173784e+05 +1.173784e+05 +1.173784e+05 +1.173783e+05 +1.173783e+05 +1.173783e+05 +1.173783e+05 +1.173783e+05 +1.173783e+05 +1.173783e+05 +1.173783e+05 +1.173783e+05 +1.173783e+05 +1.173783e+05 +1.173781e+05 +1.173781e+05 +1.173781e+05 +1.173781e+05 +1.173781e+05 +1.173781e+05 +1.173781e+05 +1.173781e+05 +1.173781e+05 +1.173781e+05 +1.173781e+05 +1.173780e+05 +1.173780e+05 +1.173780e+05 +1.173780e+05 +1.173780e+05 +1.173780e+05 +1.173780e+05 +1.173780e+05 +1.173780e+05 +1.173780e+05 +1.173780e+05 </DataArray></PointData></Piece></ImageData></VTKFile>
