<?xml version="1.0" encoding="UTF-8"?>
<VTKFile type="ImageData"><!--This file is generated by NIOBASIC VTI_RectilinearGrid_write--><ImageData WholeExtent="0 10 0 0 0 10" Origin="0 0 0" Spacing="1 1 1"><Piece Extent="0 10 0 0 0 10"><PointData Scalars="scalar_data_0"><DataArray type="Float64" Name="scalar_data_0" format="ascii">+0.000000e+00 +0.000000e+00 +0.000000e+00 +0.000000e+00 +0.000000e+00 +0.000000e+00 +0.000000e+00 +0.000000e+00 +0.000000e+00 +0.000000e+00 +0.000000e+00 +0.000000e+00 +0.000000e+00 +0.000000e+00 +0.000000e+00 +0.000000e+00 +0.000000e+00 +0.000000e+00 +0.000000e+00 +0.000000e+00 +0.000000e+00 +0.000000e+00 +0.000000e+00 +0.000000e+00 +0.000000e+00 +0.000000e+00 +0.000000e+00 +0.000000e+00 +0.000000e+00 +0.000000e+00 +0.000000e+00 +0.000000e+00 +0.000000e+00 +0.000000e+00 +0.000000e+00 +0.000000e+00 +0.000000e+00 +0.000000e+00 +0.000000e+00 +0.000000e+00 +0.000000e+00 +0.000000e+00 +0.000000e+00 +0.000000e+00 +0.000000e+00 +0.000000e+00 +0.000000e+00 +0.000000e+00 +0.000000e+00 +0.000000e+00 +0.000000e+00 +0.000000e+00 +0.000000e+00 +0.000000e+00 +0.000000e+00 +0.000000e+00 +0.000000e+00 +0.000000e+00 +0.000000e+00 +0.000000e+00 +0.000000e+00 +0.000000e+00 +0.000000e+00 +0.000000e+00 +0.000000e+00 +0.000000e+00 +0.000000e+00 +0.000000e+00 +0.000000e+00 +0.000000e+00 +0.000000e+00 +0.000000e+00 +0.000000e+00 +0.000000e+00 +0.000000e+00 +0.000000e+00 +0.000000e+00 +0.000000e+00 +0.000000e+00 +0.000000e+00 +0.000000e+00 +0.000000e+00 +0.000000e+00 +0.000000e+00 +0.000000e+00 +0.000000e+00 +0.000000e+00 +0.000000e+00 +0.000000e+00 +0.000000e+00 +0.000000e+00 +0.000000e+00 +0.000000e+00 +0.000000e+00 +0.000000e+00 +0.000000e+00 +0.000000e+00 +0.000000e+00 +0.000000e+00 +0.000000e+00 +0.000000e+00 +0.000000e+00 +0.000000e+00 +0.000000e+00 +0.000000e+00 +0.000000e+00 +0.000000e+00 +0.000000e+00 +0.000000e+00 +0.000000e+00 +0.000000e+00 +0.000000e+00 +0.000000e+00 +0.000000e+00 +0.000000e+00 +0.000000e+00 +0.000000e+00 +0.000000e+00 +0.000000e+00 +0.000000e+00 +0.000000e+00 </DataArray><DataArray type="Float64" Name="scalar_data_1" format="ascii">+0.000000e+00 +0.000000e+00 +0.000000e+00 +0.000000e+00 +0.000000e+00 +0.000000e+00 +0.000000e+00 +0.000000e+00 +0.000000e+00 +0.000000e+00 +0.000000e+00 +0.000000e+00 +0.000000e+00 +0.000000e+00 +0.000000e+00 +0.000000e+00 +0.000000e+00 +0.000000e+00 +0.000000e+00 +0.000000e+00 +0.000000e+00 +0.000000e+00 +0.000000e+00 +0.000000e+00 +0.000000e+00 +0.000000e+00 +0.000000e+00 +0.000000e+00 +0.000000e+00 +0.000000e+00 +0.000000e+00 +0.000000e+00 +0.000000e+00 +0.000000e+00 +0.000000e+00 +0.000000e+00 +0.000000e+00 +0.000000e+00 +0.000000e+00 +0.000000e+00 +0.000000e+00 +0.000000e+00 +0.000000e+00 +0.000000e+00 +0.000000e+00 +0.000000e+00 +0.000000e+00 +0.000000e+00 +0.000000e+00 +0.000000e+00 +0.000000e+00 +0.000000e+00 +0.000000e+00 +0.000000e+00 +0.000000e+00 +0.000000e+00 +0.000000e+00 +0.000000e+00 +0.000000e+00 +0.000000e+00 +0.000000e+00 +0.000000e+00 +0.000000e+00 +0.000000e+00 +0.000000e+00 +0.000000e+00 +0.000000e+00 +0.000000e+00 +0.000000e+00 +0.000000e+00 +0.000000e+00 +0.000000e+00 +0.000000e+00 +0.000000e+00 +0.000000e+00 +0.000000e+00 +0.000000e+00 +0.000000e+00 +0.000000e+00 +0.000000e+00 +0.000000e+00 +0.000000e+00 +0.000000e+00 +0.000000e+00 +0.000000e+00 +0.000000e+00 +0.000000e+00 +0.000000e+00 +0.000000e+00 +0.000000e+00 +0.000000e+00 +0.000000e+00 +0.000000e+00 +0.000000e+00 +0.000000e+00 +0.000000e+00 +0.000000e+00 +0.000000e+00 +0.000000e+00 +0.000000e+00 +0.000000e+00 +0.000000e+00 +0.000000e+00 +0.000000e+00 +0.000000e+00 +0.000000e+00 +0.000000e+00 +0.000000e+00 +0.000000e+00 +0.000000e+00 +0.000000e+00 +0.000000e+00 +0.000000e+00 +0.000000e+00 +0.000000e+00 +0.000000e+00 +0.000000e+00 +0.000000e+00 +0.000000e+00 +0.000000e+00 +0.000000e+00 </DataArray><DataArray type="Float64" Name="scalar_data_2" format="ascii">+1.173778e+07 +1.173778e+07 +1.173778e+07 +1.173778e+07 +1.173778e+07 +1.173778e+07 +1.173778e+07 +1.173778e+07 +1.173778e+07 +1.173778e+07 +1.173778e+07 +1.173777e+07 +1.173777e+07 +1.173777e+07 +1.173777e+07 +1.173777e+07 +1.173777e+07 +1.173777e+07 +1.173777e+07 +1.173777e+07 +1.173777e+07 +1.173777e+07 +1.173775e+07 +1.173775e+07 +1.173775e+07 +1.173775e+07 +1.173775e+07 +1.173775e+07 +1.173775e+07 +1.173775e+07 +1.173775e+07 +1.173775e+07 +1.173775e+07 +1.173777e+07 +1.173777e+07 +1.173777e+07 +1.173777e+07 +1.173777e+07 +1.173777e+07 +1.173777e+07 +1.173777e+07 +1.173777e+07 +1.173777e+07 +1.173777e+07 +1.173780e+07 +1.173780e+07 +1.173780e+07 +1.173780e+07 +1.173780e+07 +1.173780e+07 +1.173780e+07 +1.173780e+07 +1.173780e+07 +1.173780e+07 +1.173780e+07 +1.173784e+07 +1.173784e+07 +1.173784e+07 +1.173784e+07 +1.173784e+07 +1.173784e+07 +1.173784e+07 +1.173784e+07 +1.173784e+07 +1.173784e+07 +1.173784e+07 +1.173785e+07 +1.173785e+07 +1.173785e+07 +1.173785e+07 +1.173785e+07 +1.173785e+07 +1.173785e+07 +1.173785e+07 +1.173785e+07 +1.173785e+07 +1.173785e+07 +1.173784e+07 +1.173784e+07 +1.173784e+07 +1.173784e+07 +1.173784e+07 +1.173784e+07 +1.173784e+07 +1.173784e+07 +1.173784e+07 +1.173784e+07 +1.173784e+07 +1.173783e+07 +1.173783e+07 +1.173783e+07 +1.173783e+07 +1.173783e+07 +1.173783e+07 +1.173783e+07 +1.173783e+07 +1.173783e+07 +1.173783e+07 +1.173783e+07 +1.173781e+07 +1.173781e+07 +1.173781e+07 +1.173781e+07 +1.173781e+07 +1.173781e+07 +1.173781e+07 +1.173781e+07 +1.173781e+07 +1.173781e+07 +1.173781e+07 +1.173780e+07 +1.173780e+07 +1.173780e+07 +1.173780e+07 +1.173780e+07 +1.173780e+07 +1.173780e+07 +1.173780e+07 +1.173780e+07 +1.173780e+07 +1.173780e+07 </DataArray></PointData></Piece></ImageData></VTKFile>
